********************************************************************************
*                       GENERAL UTILITY LATTICE PROGRAM                        *
*                                 Julian Gale                                  *
*                      Nanochemistry Research Institute                        *
*                           Department of Chemistry                            *
*                    Curtin University, Western Australia                      *
********************************************************************************
* Version = 4.4.2 * Last modified = 20th June 2016                             *
********************************************************************************
*  optimise     - perform optimisation run                                     *
*  conp         - constant pressure calculation                                *
*  property     - calculate properties for final geometry                      *
********************************************************************************
* RbF Test File                                                                *
********************************************************************************


  Job Started  at 11:08.47 27th February   2017                               

  Number of CPUs =     1


  Total number of configurations input =   1

********************************************************************************
*  Input for Configuration =   1                                               *
********************************************************************************

  Formula = Rb4F4                                                       

  Number of irreducible atoms/shells =       8


  Total number atoms/shells =       8

  Dimensionality = 3               :  Bulk   



  Cartesian lattice vectors (Angstroms) :

        5.739000    0.000000    0.000000
        0.000000    5.739000    0.000000
        0.000000    0.000000    5.739000

  Cell parameters (Angstroms/Degrees):

  a =       5.7390    alpha =  90.0000
  b =       5.7390    beta  =  90.0000
  c =       5.7390    gamma =  90.0000

  Initial cell volume =         189.020398 Angs**3

  Temperature of configuration =  0.000     K 

  Pressure of configuration =         0.000 GPa 

  Fractional coordinates of asymmetric unit :

--------------------------------------------------------------------------------
   No.  Atomic       x           y          z         Charge      Occupancy
        Label      (Frac)      (Frac)     (Frac)        (e)         (Frac)  
--------------------------------------------------------------------------------
      1 Rb    c    0.000000    0.000000    0.000000     0.96000    1.000000    
      2 Rb    c    0.000000 *  0.500000 *  0.500000 *   0.96000    1.000000    
      3 Rb    c    0.500000 *  0.000000 *  0.500000 *   0.96000    1.000000    
      4 Rb    c    0.500000 *  0.500000 *  0.000000 *   0.96000    1.000000    
      5 F     c    0.000000 *  0.000000 *  0.500000 *  -0.96000    1.000000    
      6 F     c    0.000000 *  0.500000 *  0.000000 *  -0.96000    1.000000    
      7 F     c    0.500000 *  0.000000 *  0.000000 *  -0.96000    1.000000    
      8 F     c    0.500000 *  0.500000 *  0.500000 *  -0.96000    1.000000    
--------------------------------------------------------------------------------



********************************************************************************
*  General input information                                                   *
********************************************************************************

  Species output for all configurations : 

--------------------------------------------------------------------------------
  Species    Type    Atomic    Atomic    Charge       Radii (Angs)     Library
                     Number     Mass       (e)     Cova   Ionic  VDW   Symbol
--------------------------------------------------------------------------------
    Rb       Core       37      85.47   0.960000   1.470  0.000  2.190          
    F        Core        9      19.00  -0.960000   0.710  0.000  1.300          
--------------------------------------------------------------------------------


  Lattice summation method               =    Ewald          (3-D)
                                         =    Parry          (2-D)
                                         =    Saunders et al (1-D)
  Accuracy factor for lattice sums       =   12.000


  Time limit = Infinity

  Maximum range for interatomic potentials =    100000.000000 Angstroms

  General interatomic potentials :

--------------------------------------------------------------------------------
Atom  Types   Potential         A         B         C         D     Cutoffs(Ang)
  1     2                                                            Min    Max 
--------------------------------------------------------------------------------
Rb   c Rb   c Buckingham    0.681E+04 0.270      0.00      0.00     0.000 12.000
F    c Rb   c Buckingham    0.221E+04 0.295      69.8      0.00     0.000 12.000
F    c F    c Buckingham    0.113E+04 0.275      0.00      0.00     0.000 12.000
--------------------------------------------------------------------------------

********************************************************************************
*  Output for configuration   1                                                *
********************************************************************************


  Components of energy : 

--------------------------------------------------------------------------------
  Interatomic potentials     =          -0.11182590 eV
  Monopole - monopole (real) =         -10.40925253 eV
  Monopole - monopole (recip)=         -21.91918173 eV
  Monopole - monopole (total)=         -32.32843426 eV
--------------------------------------------------------------------------------
  Total lattice energy       =         -32.44026016 eV
--------------------------------------------------------------------------------
  Total lattice energy       =           -3129.9892 kJ/(mole unit cells)
--------------------------------------------------------------------------------


  Number of variables =       27

  Maximum number of calculations  =          1000
  Maximum Hessian update interval =            10
  Maximum step size               =   1.000000000
  Maximum parameter tolerance     =   0.000010000
  Maximum function  tolerance     =   0.000010000
  Maximum gradient  tolerance     =   0.001000000
  Maximum gradient  component     =   0.010000000

  Symmetry not applied to optimisation

  Cell parameters to be optimised using strains

  Newton-Raphson optimiser to be used

  BFGS hessian update to be used

  Start of bulk optimisation :

  Cycle:      0 Energy:       -32.440260  Gnorm:      0.444246  CPU:    0.009
  ** Hessian calculated **
  Cycle:      1 Energy:       -33.543774  Gnorm:      0.113858  CPU:    0.011
  Cycle:      2 Energy:       -33.596468  Gnorm:      0.000023  CPU:    0.014


  **** Optimisation achieved ****


  Final energy =     -33.59646804 eV
  Final Gnorm  =       0.00000214

  Components of energy : 

--------------------------------------------------------------------------------
  Interatomic potentials     =           1.99449116 eV
  Monopole - monopole (real) =         -11.45973477 eV
  Monopole - monopole (recip)=         -24.13122443 eV
  Monopole - monopole (total)=         -35.59095920 eV
--------------------------------------------------------------------------------
  Total lattice energy       =         -33.59646804 eV
--------------------------------------------------------------------------------
  Total lattice energy       =           -3241.5456 kJ/(mole unit cells)
--------------------------------------------------------------------------------

  Final fractional coordinates of atoms :

--------------------------------------------------------------------------------
   No.  Atomic        x           y          z          Radius
        Label       (Frac)      (Frac)     (Frac)       (Angs) 
--------------------------------------------------------------------------------
     1  Rb    c     0.000000    0.000000    0.000000    0.000000
     2  Rb    c     0.000000    0.500000    0.500000    0.000000
     3  Rb    c     0.500000    0.000000    0.500000    0.000000
     4  Rb    c     0.500000    0.500000    0.000000    0.000000
     5  F     c     0.000000    0.000000    0.500000    0.000000
     6  F     c     0.000000    0.500000    0.000000    0.000000
     7  F     c     0.500000    0.000000    0.000000    0.000000
     8  F     c     0.500000    0.500000    0.500000    0.000000
--------------------------------------------------------------------------------

  Final Cartesian lattice vectors (Angstroms) :

        5.212922    0.000000    0.000000
        0.000000    5.212922    0.000000
        0.000000    0.000000    5.212922


  Final cell parameters and derivatives :

--------------------------------------------------------------------------------
       a            5.212922 Angstrom     dE/de1(xx)     0.000033 eV/strain
       b            5.212922 Angstrom     dE/de2(yy)     0.000033 eV/strain
       c            5.212922 Angstrom     dE/de3(zz)     0.000033 eV/strain
       alpha       90.000000 Degrees      dE/de4(yz)     0.000000 eV/strain
       beta        90.000000 Degrees      dE/de5(xz)     0.000000 eV/strain
       gamma       90.000000 Degrees      dE/de6(xy)    -0.000000 eV/strain
--------------------------------------------------------------------------------

  Primitive cell volume =           141.658817 Angs**3

  Density of cell =      4.898510 g/cm**3

  Non-primitive cell volume =           141.658817 Angs**3


  Final internal derivatives :

--------------------------------------------------------------------------------
   No.  Atomic          a             b             c           Radius
        Label          (eV)          (eV)          (eV)        (eV/Angs)
--------------------------------------------------------------------------------
      1 Rb    c       0.000000      0.000000      0.000000      0.000000
      2 Rb    c       0.000000     -0.000000     -0.000000      0.000000
      3 Rb    c      -0.000000      0.000000     -0.000000      0.000000
      4 Rb    c      -0.000000     -0.000000      0.000000      0.000000
      5 F     c      -0.000000      0.000000      0.000000      0.000000
      6 F     c      -0.000000     -0.000000      0.000000      0.000000
      7 F     c       0.000000      0.000000     -0.000000      0.000000
      8 F     c       0.000000     -0.000000      0.000000      0.000000
--------------------------------------------------------------------------------
  Maximum abs         0.000000      0.000000      0.000000      0.000000
--------------------------------------------------------------------------------


  Born effective charge tensors : 

-------------------------------------------------------------------------------
  Atom             x           y             z
-------------------------------------------------------------------------------
   1 Rb    x       0.9600      0.0000      0.0000
           y       0.0000      0.9600      0.0000
           z       0.0000      0.0000      0.9600
-------------------------------------------------------------------------------
   2 Rb    x       0.9600      0.0000      0.0000
           y       0.0000      0.9600      0.0000
           z       0.0000      0.0000      0.9600
-------------------------------------------------------------------------------
   3 Rb    x       0.9600      0.0000      0.0000
           y       0.0000      0.9600      0.0000
           z       0.0000      0.0000      0.9600
-------------------------------------------------------------------------------
   4 Rb    x       0.9600      0.0000      0.0000
           y       0.0000      0.9600      0.0000
           z       0.0000      0.0000      0.9600
-------------------------------------------------------------------------------
   5 F     x      -0.9600      0.0000      0.0000
           y       0.0000     -0.9600      0.0000
           z       0.0000      0.0000     -0.9600
-------------------------------------------------------------------------------
   6 F     x      -0.9600      0.0000      0.0000
           y       0.0000     -0.9600      0.0000
           z       0.0000      0.0000     -0.9600
-------------------------------------------------------------------------------
   7 F     x      -0.9600      0.0000      0.0000
           y       0.0000     -0.9600      0.0000
           z       0.0000      0.0000     -0.9600
-------------------------------------------------------------------------------
   8 F     x      -0.9600      0.0000      0.0000
           y       0.0000     -0.9600      0.0000
           z       0.0000      0.0000     -0.9600
-------------------------------------------------------------------------------




  Elastic Constant Matrix: (Units=GPa)

-------------------------------------------------------------------------------
  Indices      1         2         3         4         5         6    
-------------------------------------------------------------------------------
       1     85.7190   18.5800   18.5800   -0.0000   -0.0000    0.0000
       2     18.5800   85.7190   18.5800   -0.0000    0.0000    0.0000
       3     18.5800   18.5800   85.7190   -0.0000   -0.0000    0.0000
       4     -0.0000   -0.0000   -0.0000   18.5801   -0.0000    0.0000
       5     -0.0000    0.0000   -0.0000   -0.0000   18.5801   -0.0000
       6      0.0000    0.0000    0.0000    0.0000   -0.0000   18.5801
-------------------------------------------------------------------------------


  Elastic Compliance Matrix: (Units=1/GPa)

-------------------------------------------------------------------------------
  Indices      1         2         3         4         5         6    
-------------------------------------------------------------------------------
       1    0.012642 -0.002252 -0.002252  0.000000  0.000000 -0.000000
       2   -0.002252  0.012642 -0.002252  0.000000 -0.000000 -0.000000
       3   -0.002252 -0.002252  0.012642  0.000000  0.000000 -0.000000
       4    0.000000  0.000000  0.000000  0.053821  0.000000 -0.000000
       5    0.000000 -0.000000  0.000000  0.000000  0.053821  0.000000
       6   -0.000000 -0.000000 -0.000000 -0.000000  0.000000  0.053821
-------------------------------------------------------------------------------

  Mechanical properties :

-------------------------------------------------------------------------------
  Convention :                    Reuss         Voigt         Hill
-------------------------------------------------------------------------------
  Bulk  Modulus (GPa)     =      40.95969      40.95969      40.95969
  Shear Modulus (GPa)     =      22.62022      24.57584      23.59803
-------------------------------------------------------------------------------
  Velocity S-wave (km/s)  =       2.14890       2.23987       2.19486
  Velocity P-wave (km/s)  =       3.81034       3.87956       3.84511
-------------------------------------------------------------------------------
  Compressibility (1/GPa) =    0.02441425
-------------------------------------------------------------------------------
  Stress axis :                     x             y             z
-------------------------------------------------------------------------------
  Youngs Moduli (GPa)     =      79.09924      79.09924      79.09924
-------------------------------------------------------------------------------
  Poissons Ratio (x)      =                     0.17814       0.17814
  Poissons Ratio (y)      =       0.17814                     0.17814
  Poissons Ratio (z)      =       0.17814       0.17814
-------------------------------------------------------------------------------


  Piezoelectric Strain Matrix: (Units=C/m**2)

-------------------------------------------------------------------------------
  Indices      1         2         3         4         5         6    
-------------------------------------------------------------------------------
       x    -0.00000  -0.00000  -0.00000  -0.00000   0.00000   0.00000
       y    -0.00000  -0.00000   0.00000   0.00000  -0.00000  -0.00000
       z     0.00000   0.00000  -0.00000   0.00000  -0.00000  -0.00000
-------------------------------------------------------------------------------


  Piezoelectric Stress Matrix: (Units=10**-11 C/N)

-------------------------------------------------------------------------------
  Indices      1         2         3         4         5         6    
-------------------------------------------------------------------------------
       x    -0.00000   0.00000  -0.00000  -0.00000   0.00000   0.00000
       y    -0.00000  -0.00000   0.00000   0.00000  -0.00000  -0.00000
       z     0.00000   0.00000  -0.00000   0.00000  -0.00000  -0.00000
-------------------------------------------------------------------------------


  Static dielectric constant tensor : 

-------------------------------------------------------------------------------
              x         y         z
-------------------------------------------------------------------------------
       x     3.26308  -0.00000   0.00000
       y    -0.00000   3.26308  -0.00000
       z     0.00000  -0.00000   3.26308
--------------------------------------------------------------------------------

  Static refractive indices : 

-------------------------------------------------------------------------------
    1 =    1.80640      2 =    1.80640      3 =    1.80640
-------------------------------------------------------------------------------


  Time to end of optimisation =       0.0195 seconds


  Peak dynamic memory used =       0.50 MB 


  Timing analysis for GULP :

--------------------------------------------------------------------------------
  Task / Subroutine                                          Time (Seconds)
--------------------------------------------------------------------------------
  Calculation of reciprocal space energy and derivatives          0.0015
  Calculation of real space energy and derivatives                0.0095
  Calculation of matrix inversion                                 0.0002
--------------------------------------------------------------------------------
  Total CPU time                                                  0.0196
--------------------------------------------------------------------------------


  Job Finished at 11:08.48 27th February   2017                               

