********************************************************************************
*                       GENERAL UTILITY LATTICE PROGRAM                        *
*                                 Julian Gale                                  *
*                      Nanochemistry Research Institute                        *
*                           Department of Chemistry                            *
*                    Curtin University, Western Australia                      *
********************************************************************************
* Version = 4.4.2 * Last modified = 20th June 2016                             *
********************************************************************************
*  optimise     - perform optimisation run                                     *
*  conp         - constant pressure calculation                                *
*  property     - calculate properties for final geometry                      *
********************************************************************************
* RbBr Test File                                                               *
********************************************************************************


  Job Started  at 11:20.47 27th February   2017                               

  Number of CPUs =     1


  Total number of configurations input =   1

********************************************************************************
*  Input for Configuration =   1                                               *
********************************************************************************

  Formula = Rb4Br4                                                      

  Number of irreducible atoms/shells =       8


  Total number atoms/shells =       8

  Dimensionality = 3               :  Bulk   



  Cartesian lattice vectors (Angstroms) :

        7.028000    0.000000    0.000000
        0.000000    7.028000    0.000000
        0.000000    0.000000    7.028000

  Cell parameters (Angstroms/Degrees):

  a =       7.0280    alpha =  90.0000
  b =       7.0280    beta  =  90.0000
  c =       7.0280    gamma =  90.0000

  Initial cell volume =         347.132486 Angs**3

  Temperature of configuration =  0.000     K 

  Pressure of configuration =         0.000 GPa 

  Fractional coordinates of asymmetric unit :

--------------------------------------------------------------------------------
   No.  Atomic       x           y          z         Charge      Occupancy
        Label      (Frac)      (Frac)     (Frac)        (e)         (Frac)  
--------------------------------------------------------------------------------
      1 Rb    c    0.000000    0.000000    0.000000     0.98800    1.000000    
      2 Rb    c    0.000000 *  0.500000 *  0.500000 *   0.98800    1.000000    
      3 Rb    c    0.500000 *  0.000000 *  0.500000 *   0.98800    1.000000    
      4 Rb    c    0.500000 *  0.500000 *  0.000000 *   0.98800    1.000000    
      5 Br    c    0.000000 *  0.000000 *  0.500000 *  -0.98800    1.000000    
      6 Br    c    0.000000 *  0.500000 *  0.000000 *  -0.98800    1.000000    
      7 Br    c    0.500000 *  0.000000 *  0.000000 *  -0.98800    1.000000    
      8 Br    c    0.500000 *  0.500000 *  0.500000 *  -0.98800    1.000000    
--------------------------------------------------------------------------------



********************************************************************************
*  General input information                                                   *
********************************************************************************

  Species output for all configurations : 

--------------------------------------------------------------------------------
  Species    Type    Atomic    Atomic    Charge       Radii (Angs)     Library
                     Number     Mass       (e)     Cova   Ionic  VDW   Symbol
--------------------------------------------------------------------------------
    Rb       Core       37      85.47   0.988000   1.470  0.000  2.190          
    Br       Core       35      79.90  -0.988000   1.210  0.000  1.800          
--------------------------------------------------------------------------------


  Lattice summation method               =    Ewald          (3-D)
                                         =    Parry          (2-D)
                                         =    Saunders et al (1-D)
  Accuracy factor for lattice sums       =   12.000


  Time limit = Infinity

  Maximum range for interatomic potentials =    100000.000000 Angstroms

  General interatomic potentials :

--------------------------------------------------------------------------------
Atom  Types   Potential         A         B         C         D     Cutoffs(Ang)
  1     2                                                            Min    Max 
--------------------------------------------------------------------------------
Rb   c Rb   c Buckingham    0.681E+04 0.270      0.00      0.00     0.000 12.000
Br   c Rb   c Buckingham    0.417E+04 0.332      261.      0.00     0.000 12.000
Br   c Br   c Buckingham    0.295E+04 0.316      0.00      0.00     0.000 12.000
--------------------------------------------------------------------------------

********************************************************************************
*  Output for configuration   1                                                *
********************************************************************************


  Components of energy : 

--------------------------------------------------------------------------------
  Interatomic potentials     =          -1.08118408 eV
  Monopole - monopole (real) =          -9.00316978 eV
  Monopole - monopole (recip)=         -18.95833671 eV
  Monopole - monopole (total)=         -27.96150649 eV
--------------------------------------------------------------------------------
  Total lattice energy       =         -29.04269057 eV
--------------------------------------------------------------------------------
  Total lattice energy       =           -2802.1757 kJ/(mole unit cells)
--------------------------------------------------------------------------------


  Number of variables =       27

  Maximum number of calculations  =          1000
  Maximum Hessian update interval =            10
  Maximum step size               =   1.000000000
  Maximum parameter tolerance     =   0.000010000
  Maximum function  tolerance     =   0.000010000
  Maximum gradient  tolerance     =   0.001000000
  Maximum gradient  component     =   0.010000000

  Symmetry not applied to optimisation

  Cell parameters to be optimised using strains

  Newton-Raphson optimiser to be used

  BFGS hessian update to be used

  Start of bulk optimisation :

  Cycle:      0 Energy:       -29.042691  Gnorm:      0.484646  CPU:    0.012
  ** Hessian calculated **
  Cycle:      1 Energy:       -30.522303  Gnorm:      0.055721  CPU:    0.016
  Cycle:      2 Energy:       -30.526007  Gnorm:      0.046612  CPU:    0.018
  Cycle:      3 Energy:       -30.532654  Gnorm:      0.000127  CPU:    0.020


  **** Optimisation achieved ****


  Final energy =     -30.53265361 eV
  Final Gnorm  =       0.00000000

  Components of energy : 

--------------------------------------------------------------------------------
  Interatomic potentials     =           0.66613652 eV
  Monopole - monopole (real) =         -10.04552471 eV
  Monopole - monopole (recip)=         -21.15326542 eV
  Monopole - monopole (total)=         -31.19879014 eV
--------------------------------------------------------------------------------
  Total lattice energy       =         -30.53265361 eV
--------------------------------------------------------------------------------
  Total lattice energy       =           -2945.9343 kJ/(mole unit cells)
--------------------------------------------------------------------------------

  Final fractional coordinates of atoms :

--------------------------------------------------------------------------------
   No.  Atomic        x           y          z          Radius
        Label       (Frac)      (Frac)     (Frac)       (Angs) 
--------------------------------------------------------------------------------
     1  Rb    c     0.000000    0.000000    0.000000    0.000000
     2  Rb    c     0.000000    0.500000    0.500000    0.000000
     3  Rb    c     0.500000    0.000000    0.500000    0.000000
     4  Rb    c     0.500000    0.500000    0.000000    0.000000
     5  Br    c     0.000000    0.000000    0.500000    0.000000
     6  Br    c     0.000000    0.500000    0.000000    0.000000
     7  Br    c     0.500000    0.000000    0.000000    0.000000
     8  Br    c     0.500000    0.500000    0.500000    0.000000
--------------------------------------------------------------------------------

  Final Cartesian lattice vectors (Angstroms) :

        6.298753    0.000000    0.000000
        0.000000    6.298753    0.000000
        0.000000    0.000000    6.298753


  Final cell parameters and derivatives :

--------------------------------------------------------------------------------
       a            6.298753 Angstrom     dE/de1(xx)     0.000000 eV/strain
       b            6.298753 Angstrom     dE/de2(yy)     0.000000 eV/strain
       c            6.298753 Angstrom     dE/de3(zz)     0.000000 eV/strain
       alpha       90.000000 Degrees      dE/de4(yz)    -0.000000 eV/strain
       beta        90.000000 Degrees      dE/de5(xz)     0.000000 eV/strain
       gamma       90.000000 Degrees      dE/de6(xy)     0.000000 eV/strain
--------------------------------------------------------------------------------

  Primitive cell volume =           249.898529 Angs**3

  Density of cell =      4.395507 g/cm**3

  Non-primitive cell volume =           249.898529 Angs**3


  Final internal derivatives :

--------------------------------------------------------------------------------
   No.  Atomic          a             b             c           Radius
        Label          (eV)          (eV)          (eV)        (eV/Angs)
--------------------------------------------------------------------------------
      1 Rb    c       0.000000      0.000000      0.000000      0.000000
      2 Rb    c      -0.000000      0.000000     -0.000000      0.000000
      3 Rb    c       0.000000     -0.000000      0.000000      0.000000
      4 Rb    c       0.000000      0.000000     -0.000000      0.000000
      5 Br    c      -0.000000     -0.000000      0.000000      0.000000
      6 Br    c      -0.000000      0.000000     -0.000000      0.000000
      7 Br    c       0.000000     -0.000000      0.000000      0.000000
      8 Br    c       0.000000      0.000000      0.000000      0.000000
--------------------------------------------------------------------------------
  Maximum abs         0.000000      0.000000      0.000000      0.000000
--------------------------------------------------------------------------------


  Born effective charge tensors : 

-------------------------------------------------------------------------------
  Atom             x           y             z
-------------------------------------------------------------------------------
   1 Rb    x       0.9880      0.0000      0.0000
           y       0.0000      0.9880      0.0000
           z       0.0000      0.0000      0.9880
-------------------------------------------------------------------------------
   2 Rb    x       0.9880      0.0000      0.0000
           y       0.0000      0.9880      0.0000
           z       0.0000      0.0000      0.9880
-------------------------------------------------------------------------------
   3 Rb    x       0.9880      0.0000      0.0000
           y       0.0000      0.9880      0.0000
           z       0.0000      0.0000      0.9880
-------------------------------------------------------------------------------
   4 Rb    x       0.9880      0.0000      0.0000
           y       0.0000      0.9880      0.0000
           z       0.0000      0.0000      0.9880
-------------------------------------------------------------------------------
   5 Br    x      -0.9880      0.0000      0.0000
           y       0.0000     -0.9880      0.0000
           z       0.0000      0.0000     -0.9880
-------------------------------------------------------------------------------
   6 Br    x      -0.9880      0.0000      0.0000
           y       0.0000     -0.9880      0.0000
           z       0.0000      0.0000     -0.9880
-------------------------------------------------------------------------------
   7 Br    x      -0.9880      0.0000      0.0000
           y       0.0000     -0.9880      0.0000
           z       0.0000      0.0000     -0.9880
-------------------------------------------------------------------------------
   8 Br    x      -0.9880      0.0000      0.0000
           y       0.0000     -0.9880      0.0000
           z       0.0000      0.0000     -0.9880
-------------------------------------------------------------------------------




  Elastic Constant Matrix: (Units=GPa)

-------------------------------------------------------------------------------
  Indices      1         2         3         4         5         6    
-------------------------------------------------------------------------------
       1     58.8204    7.3719    7.3719    0.0000    0.0000   -0.0000
       2      7.3719   58.8204    7.3719   -0.0000   -0.0000    0.0000
       3      7.3719    7.3719   58.8204    0.0000    0.0000   -0.0000
       4      0.0000   -0.0000    0.0000    7.3719   -0.0000   -0.0000
       5      0.0000   -0.0000    0.0000   -0.0000    7.3719    0.0000
       6     -0.0000    0.0000   -0.0000   -0.0000    0.0000    7.3719
-------------------------------------------------------------------------------


  Elastic Compliance Matrix: (Units=1/GPa)

-------------------------------------------------------------------------------
  Indices      1         2         3         4         5         6    
-------------------------------------------------------------------------------
       1    0.017489 -0.001948 -0.001948 -0.000000 -0.000000  0.000000
       2   -0.001948  0.017489 -0.001948  0.000000  0.000000 -0.000000
       3   -0.001948 -0.001948  0.017489 -0.000000 -0.000000  0.000000
       4   -0.000000  0.000000 -0.000000  0.135650  0.000000  0.000000
       5   -0.000000  0.000000 -0.000000  0.000000  0.135650 -0.000000
       6    0.000000 -0.000000  0.000000  0.000000 -0.000000  0.135650
-------------------------------------------------------------------------------

  Mechanical properties :

-------------------------------------------------------------------------------
  Convention :                    Reuss         Voigt         Hill
-------------------------------------------------------------------------------
  Bulk  Modulus (GPa)     =      24.52140      24.52140      24.52140
  Shear Modulus (GPa)     =      10.31571      14.71284      12.51427
-------------------------------------------------------------------------------
  Velocity S-wave (km/s)  =       1.53195       1.82955       1.68732
  Velocity P-wave (km/s)  =       2.95092       3.16887       3.06183
-------------------------------------------------------------------------------
  Compressibility (1/GPa) =    0.04078070
-------------------------------------------------------------------------------
  Stress axis :                     x             y             z
-------------------------------------------------------------------------------
  Youngs Moduli (GPa)     =      57.17835      57.17835      57.17835
-------------------------------------------------------------------------------
  Poissons Ratio (x)      =                     0.11137       0.11137
  Poissons Ratio (y)      =       0.11137                     0.11137
  Poissons Ratio (z)      =       0.11137       0.11137
-------------------------------------------------------------------------------


  Piezoelectric Strain Matrix: (Units=C/m**2)

-------------------------------------------------------------------------------
  Indices      1         2         3         4         5         6    
-------------------------------------------------------------------------------
       x     0.00000   0.00000   0.00000   0.00000   0.00000  -0.00000
       y    -0.00000   0.00000  -0.00000   0.00000   0.00000   0.00000
       z     0.00000  -0.00000   0.00000  -0.00000   0.00000   0.00000
-------------------------------------------------------------------------------


  Piezoelectric Stress Matrix: (Units=10**-11 C/N)

-------------------------------------------------------------------------------
  Indices      1         2         3         4         5         6    
-------------------------------------------------------------------------------
       x     0.00000   0.00000   0.00000   0.00000   0.00000  -0.00000
       y    -0.00000   0.00000  -0.00000   0.00000   0.00000   0.00000
       z    -0.00000  -0.00000   0.00000  -0.00000   0.00000   0.00000
-------------------------------------------------------------------------------


  Static dielectric constant tensor : 

-------------------------------------------------------------------------------
              x         y         z
-------------------------------------------------------------------------------
       x     2.45237   0.00000  -0.00000
       y     0.00000   2.45237  -0.00000
       z    -0.00000  -0.00000   2.45237
--------------------------------------------------------------------------------

  Static refractive indices : 

-------------------------------------------------------------------------------
    1 =    1.56601      2 =    1.56601      3 =    1.56601
-------------------------------------------------------------------------------


  Time to end of optimisation =       0.0263 seconds


  Peak dynamic memory used =       0.50 MB 


  Timing analysis for GULP :

--------------------------------------------------------------------------------
  Task / Subroutine                                          Time (Seconds)
--------------------------------------------------------------------------------
  Calculation of reciprocal space energy and derivatives          0.0021
  Calculation of real space energy and derivatives                0.0126
  Calculation of matrix inversion                                 0.0002
--------------------------------------------------------------------------------
  Total CPU time                                                  0.0265
--------------------------------------------------------------------------------


  Job Finished at 11:20.47 27th February   2017                               

