 ********************************************************************************
*                       GENERAL UTILITY LATTICE PROGRAM                        *
*                                 Julian Gale                                  *
*                      Nanochemistry Research Institute                        *
*                           Department of Chemistry                            *
*                    Curtin University, Western Australia                      *
********************************************************************************
* Version = 4.4.2 * Last modified = 20th June 2016                             *
********************************************************************************
*  single       - perform a single point run                                   *
*  conp         - constant pressure calculation                                *
*  property     - calculate properties for final geometry                      *
********************************************************************************
* LiBr Test File                                                               *
********************************************************************************


  Job Started  at 17:48.14 28th February   2017                               

  Number of CPUs =     1


  Total number of configurations input =   1

********************************************************************************
*  Input for Configuration =   1                                               *
********************************************************************************

  Formula = Li4Br4                                                      

  Number of irreducible atoms/shells =       8


  Total number atoms/shells =       8

  Dimensionality = 3               :  Bulk   



  Cartesian lattice vectors (Angstroms) :

        5.513000    0.000000    0.000000
        0.000000    5.513000    0.000000
        0.000000    0.000000    5.513000

  Cell parameters (Angstroms/Degrees):

  a =       5.5130    alpha =  90.0000
  b =       5.5130    beta  =  90.0000
  c =       5.5130    gamma =  90.0000

  Initial cell volume =         167.557541 Angs**3

  Temperature of configuration =  0.000     K 

  Pressure of configuration =         0.000 GPa 

  Fractional coordinates of asymmetric unit :

--------------------------------------------------------------------------------
   No.  Atomic       x           y          z         Charge      Occupancy
        Label      (Frac)      (Frac)     (Frac)        (e)         (Frac)  
--------------------------------------------------------------------------------
      1 Li    c    0.000000    0.000000    0.000000     0.99200    1.000000    
      2 Li    c    0.000000    0.500000    0.500000     0.99200    1.000000    
      3 Li    c    0.500000    0.000000    0.500000     0.99200    1.000000    
      4 Li    c    0.500000    0.500000    0.000000     0.99200    1.000000    
      5 Br    c    0.000000    0.000000    0.500000    -0.99200    1.000000    
      6 Br    c    0.000000    0.500000    0.000000    -0.99200    1.000000    
      7 Br    c    0.500000    0.000000    0.000000    -0.99200    1.000000    
      8 Br    c    0.500000    0.500000    0.500000    -0.99200    1.000000    
--------------------------------------------------------------------------------



********************************************************************************
*  General input information                                                   *
********************************************************************************

  Species output for all configurations : 

--------------------------------------------------------------------------------
  Species    Type    Atomic    Atomic    Charge       Radii (Angs)     Library
                     Number     Mass       (e)     Cova   Ionic  VDW   Symbol
--------------------------------------------------------------------------------
    Li       Core        3       6.94   0.992000   0.680  0.000  1.800          
    Br       Core       35      79.90  -0.992000   1.210  0.000  1.800          
--------------------------------------------------------------------------------


  Lattice summation method               =    Ewald          (3-D)
                                         =    Parry          (2-D)
                                         =    Saunders et al (1-D)
  Accuracy factor for lattice sums       =   12.000


  Time limit = Infinity

  Maximum range for interatomic potentials =    100000.000000 Angstroms

  General interatomic potentials :

--------------------------------------------------------------------------------
Atom  Types   Potential         A         B         C         D     Cutoffs(Ang)
  1     2                                                            Min    Max 
--------------------------------------------------------------------------------
Li   c Li   c Buckingham    0.115E+04 0.136      0.00      0.00     0.000 12.000
Li   c Br   c Buckingham    0.116E+04 0.288     0.100E-01  0.00     0.000 12.000
Br   c Br   c Buckingham    0.295E+04 0.321      0.00      0.00     0.000 12.000
--------------------------------------------------------------------------------

********************************************************************************
*  Output for configuration   1                                                *
********************************************************************************


  Components of energy : 

--------------------------------------------------------------------------------
  Interatomic potentials     =           2.34365618 eV
  Monopole - monopole (real) =         -11.57040752 eV
  Monopole - monopole (recip)=         -24.36427248 eV
  Monopole - monopole (total)=         -35.93468000 eV
--------------------------------------------------------------------------------
  Total lattice energy       =         -33.59102382 eV
--------------------------------------------------------------------------------
  Total lattice energy       =           -3241.0203 kJ/(mole unit cells)
--------------------------------------------------------------------------------

  Born effective charge tensors : 

-------------------------------------------------------------------------------
  Atom             x           y             z
-------------------------------------------------------------------------------
   1 Li    x       0.9920      0.0000      0.0000
           y       0.0000      0.9920      0.0000
           z       0.0000      0.0000      0.9920
-------------------------------------------------------------------------------
   2 Li    x       0.9920      0.0000      0.0000
           y       0.0000      0.9920      0.0000
           z       0.0000      0.0000      0.9920
-------------------------------------------------------------------------------
   3 Li    x       0.9920      0.0000      0.0000
           y       0.0000      0.9920      0.0000
           z       0.0000      0.0000      0.9920
-------------------------------------------------------------------------------
   4 Li    x       0.9920      0.0000      0.0000
           y       0.0000      0.9920      0.0000
           z       0.0000      0.0000      0.9920
-------------------------------------------------------------------------------
   5 Br    x      -0.9920      0.0000      0.0000
           y       0.0000     -0.9920      0.0000
           z       0.0000      0.0000     -0.9920
-------------------------------------------------------------------------------
   6 Br    x      -0.9920      0.0000      0.0000
           y       0.0000     -0.9920      0.0000
           z       0.0000      0.0000     -0.9920
-------------------------------------------------------------------------------
   7 Br    x      -0.9920      0.0000      0.0000
           y       0.0000     -0.9920      0.0000
           z       0.0000      0.0000     -0.9920
-------------------------------------------------------------------------------
   8 Br    x      -0.9920      0.0000      0.0000
           y       0.0000     -0.9920      0.0000
           z       0.0000      0.0000     -0.9920
-------------------------------------------------------------------------------




  Elastic Constant Matrix: (Units=GPa)

-------------------------------------------------------------------------------
  Indices      1         2         3         4         5         6    
-------------------------------------------------------------------------------
       1     19.2353   18.6023   18.6023    0.0000   -0.0000    0.0000
       2     18.6023   19.2353   18.6023   -0.0000   -0.0000   -0.0000
       3     18.6023   18.6023   19.2353    0.0000    0.0000   -0.0000
       4      0.0000   -0.0000    0.0000   22.5892   -0.0000   -0.0000
       5     -0.0000   -0.0000    0.0000   -0.0000   22.5892    0.0000
       6      0.0000   -0.0000   -0.0000   -0.0000    0.0000   22.5892
-------------------------------------------------------------------------------


  Elastic Compliance Matrix: (Units=1/GPa)

-------------------------------------------------------------------------------
  Indices      1         2         3         4         5         6    
-------------------------------------------------------------------------------
       1    1.059107 -0.520694 -0.520694 -0.000000  0.000000 -0.000000
       2   -0.520694  1.059107 -0.520694  0.000000  0.000000  0.000000
       3   -0.520694 -0.520694  1.059107 -0.000000 -0.000000  0.000000
       4   -0.000000  0.000000 -0.000000  0.044269  0.000000  0.000000
       5    0.000000  0.000000 -0.000000  0.000000  0.044269 -0.000000
       6   -0.000000  0.000000  0.000000  0.000000 -0.000000  0.044269
-------------------------------------------------------------------------------

  Mechanical properties :

-------------------------------------------------------------------------------
  Convention :                    Reuss         Voigt         Hill
-------------------------------------------------------------------------------
  Bulk  Modulus (GPa)     =      18.81327      18.81327      18.81327
  Shear Modulus (GPa)     =       0.77495      13.68010       7.22753
-------------------------------------------------------------------------------
  Velocity S-wave (km/s)  =       0.47446       1.99347       1.44897
  Velocity P-wave (km/s)  =       2.40108       3.28079       2.87478
-------------------------------------------------------------------------------
  Compressibility (1/GPa) =    0.05315398
-------------------------------------------------------------------------------
  Stress axis :                     x             y             z
-------------------------------------------------------------------------------
  Youngs Moduli (GPa)     =       0.94419       0.94419       0.94419
-------------------------------------------------------------------------------
  Poissons Ratio (x)      =                     0.49164       0.49164
  Poissons Ratio (y)      =       0.49164                     0.49164
  Poissons Ratio (z)      =       0.49164       0.49164
-------------------------------------------------------------------------------


  Piezoelectric Strain Matrix: (Units=C/m**2)

-------------------------------------------------------------------------------
  Indices      1         2         3         4         5         6    
-------------------------------------------------------------------------------
       x     0.00000  -0.00000  -0.00000   0.00000   0.00000   0.00000
       y    -0.00000   0.00000  -0.00000   0.00000   0.00000   0.00000
       z     0.00000   0.00000   0.00000   0.00000   0.00000   0.00000
-------------------------------------------------------------------------------


  Piezoelectric Stress Matrix: (Units=10**-11 C/N)

-------------------------------------------------------------------------------
  Indices      1         2         3         4         5         6    
-------------------------------------------------------------------------------
       x     0.00000  -0.00000  -0.00000   0.00000   0.00000   0.00000
       y    -0.00000   0.00000  -0.00000   0.00000   0.00000   0.00000
       z     0.00000  -0.00000   0.00000   0.00000   0.00000   0.00000
-------------------------------------------------------------------------------


  Static dielectric constant tensor : 

-------------------------------------------------------------------------------
              x         y         z
-------------------------------------------------------------------------------
       x    31.59452  -0.00000  -0.00000
       y    -0.00000  31.59452  -0.00000
       z    -0.00000  -0.00000  31.59452
--------------------------------------------------------------------------------

  Static refractive indices : 

-------------------------------------------------------------------------------
    1 =    5.62090      2 =    5.62090      3 =    5.62090
-------------------------------------------------------------------------------


  Time to end of properties =       0.0062 seconds


  Peak dynamic memory used =       0.50 MB 


  Timing analysis for GULP :

--------------------------------------------------------------------------------
  Task / Subroutine                                          Time (Seconds)
--------------------------------------------------------------------------------
  Calculation of reciprocal space energy and derivatives          0.0002
  Calculation of real space energy and derivatives                0.0014
--------------------------------------------------------------------------------
  Total CPU time                                                  0.0063
--------------------------------------------------------------------------------


  Job Finished at 17:48.14 28th February   2017                               

