********************************************************************************
*                       GENERAL UTILITY LATTICE PROGRAM                        *
*                                 Julian Gale                                  *
*                      Nanochemistry Research Institute                        *
*                           Department of Chemistry                            *
*                    Curtin University, Western Australia                      *
********************************************************************************
* Version = 4.4.2 * Last modified = 20th June 2016                             *
********************************************************************************
*  optimise     - perform optimisation run                                     *
*  conp         - constant pressure calculation                                *
*  property     - calculate properties for final geometry                      *
********************************************************************************
*                                                                              *
* KBr Test File                                                                *
********************************************************************************


  Job Started  at 10:57.48 27th February   2017                               

  Number of CPUs =     1


  Total number of configurations input =   1

********************************************************************************
*  Input for Configuration =   1                                               *
********************************************************************************

  Formula = K4Br4                                                       

  Number of irreducible atoms/shells =       8


  Total number atoms/shells =       8

  Dimensionality = 3               :  Bulk   



  Cartesian lattice vectors (Angstroms) :

        6.716000    0.000000    0.000000
        0.000000    6.716000    0.000000
        0.000000    0.000000    6.716000

  Cell parameters (Angstroms/Degrees):

  a =       6.7160    alpha =  90.0000
  b =       6.7160    beta  =  90.0000
  c =       6.7160    gamma =  90.0000

  Initial cell volume =         302.922870 Angs**3

  Temperature of configuration =  0.000     K 

  Pressure of configuration =         0.000 GPa 

  Fractional coordinates of asymmetric unit :

--------------------------------------------------------------------------------
   No.  Atomic       x           y          z         Charge      Occupancy
        Label      (Frac)      (Frac)     (Frac)        (e)         (Frac)  
--------------------------------------------------------------------------------
      1 K     c    0.000000    0.000000    0.000000     0.98800    1.000000    
      2 K     c    0.000000 *  0.500000 *  0.500000 *   0.98800    1.000000    
      3 K     c    0.500000 *  0.000000 *  0.500000 *   0.98800    1.000000    
      4 K     c    0.500000 *  0.500000 *  0.000000 *   0.98800    1.000000    
      5 Br    c    0.000000 *  0.000000 *  0.500000 *  -0.98800    1.000000    
      6 Br    c    0.000000 *  0.500000 *  0.000000 *  -0.98800    1.000000    
      7 Br    c    0.500000 *  0.000000 *  0.000000 *  -0.98800    1.000000    
      8 Br    c    0.500000 *  0.500000 *  0.500000 *  -0.98800    1.000000    
--------------------------------------------------------------------------------



********************************************************************************
*  General input information                                                   *
********************************************************************************

  Species output for all configurations : 

--------------------------------------------------------------------------------
  Species    Type    Atomic    Atomic    Charge       Radii (Angs)     Library
                     Number     Mass       (e)     Cova   Ionic  VDW   Symbol
--------------------------------------------------------------------------------
    K        Core       19      39.10   0.988000   1.330  0.000  2.800          
    Br       Core       35      79.90  -0.988000   1.210  0.000  1.800          
--------------------------------------------------------------------------------


  Lattice summation method               =    Ewald          (3-D)
                                         =    Parry          (2-D)
                                         =    Saunders et al (1-D)
  Accuracy factor for lattice sums       =   12.000


  Time limit = Infinity

  Maximum range for interatomic potentials =    100000.000000 Angstroms

  General interatomic potentials :

--------------------------------------------------------------------------------
Atom  Types   Potential         A         B         C         D     Cutoffs(Ang)
  1     2                                                            Min    Max 
--------------------------------------------------------------------------------
K    c K    c Buckingham    0.380E+04 0.260      0.00      0.00     0.000 12.000
K    c Br   c Buckingham    0.294E+04 0.330      184.      0.00     0.000 12.000
Br   c Br   c Buckingham    0.295E+04 0.316      0.00      0.00     0.000 12.000
--------------------------------------------------------------------------------

********************************************************************************
*  Output for configuration   1                                                *
********************************************************************************


  Components of energy : 

--------------------------------------------------------------------------------
  Interatomic potentials     =          -0.68319546 eV
  Monopole - monopole (real) =          -9.42142305 eV
  Monopole - monopole (recip)=         -19.83906945 eV
  Monopole - monopole (total)=         -29.26049249 eV
--------------------------------------------------------------------------------
  Total lattice energy       =         -29.94368796 eV
--------------------------------------------------------------------------------
  Total lattice energy       =           -2889.1082 kJ/(mole unit cells)
--------------------------------------------------------------------------------


  Number of variables =       27

  Maximum number of calculations  =          1000
  Maximum Hessian update interval =            10
  Maximum step size               =   1.000000000
  Maximum parameter tolerance     =   0.000010000
  Maximum function  tolerance     =   0.000010000
  Maximum gradient  tolerance     =   0.001000000
  Maximum gradient  component     =   0.010000000

  Symmetry not applied to optimisation

  Cell parameters to be optimised using strains

  Newton-Raphson optimiser to be used

  BFGS hessian update to be used

  Start of bulk optimisation :

  Cycle:      0 Energy:       -29.943688  Gnorm:      0.470943  CPU:    0.009
  ** Hessian calculated **
  Cycle:      1 Energy:       -31.383639  Gnorm:      0.030377  CPU:    0.013
  Cycle:      2 Energy:       -31.385099  Gnorm:      0.022883  CPU:    0.015
  Cycle:      3 Energy:       -31.386831  Gnorm:      0.000020  CPU:    0.017


  **** Optimisation achieved ****


  Final energy =     -31.38683148 eV
  Final Gnorm  =       0.00000000

  Components of energy : 

--------------------------------------------------------------------------------
  Interatomic potentials     =           1.28243183 eV
  Monopole - monopole (real) =         -10.51899418 eV
  Monopole - monopole (recip)=         -22.15026913 eV
  Monopole - monopole (total)=         -32.66926331 eV
--------------------------------------------------------------------------------
  Total lattice energy       =         -31.38683148 eV
--------------------------------------------------------------------------------
  Total lattice energy       =           -3028.3494 kJ/(mole unit cells)
--------------------------------------------------------------------------------

  Final fractional coordinates of atoms :

--------------------------------------------------------------------------------
   No.  Atomic        x           y          z          Radius
        Label       (Frac)      (Frac)     (Frac)       (Angs) 
--------------------------------------------------------------------------------
     1  K     c     0.000000    0.000000    0.000000    0.000000
     2  K     c     0.000000    0.500000    0.500000    0.000000
     3  K     c     0.500000    0.000000    0.500000    0.000000
     4  K     c     0.500000    0.500000    0.000000    0.000000
     5  Br    c     0.000000    0.000000    0.500000    0.000000
     6  Br    c     0.000000    0.500000    0.000000    0.000000
     7  Br    c     0.500000    0.000000    0.000000    0.000000
     8  Br    c     0.500000    0.500000    0.500000    0.000000
--------------------------------------------------------------------------------

  Final Cartesian lattice vectors (Angstroms) :

        6.015240    0.000000    0.000000
        0.000000    6.015240    0.000000
        0.000000    0.000000    6.015240


  Final cell parameters and derivatives :

--------------------------------------------------------------------------------
       a            6.015240 Angstrom     dE/de1(xx)     0.000000 eV/strain
       b            6.015240 Angstrom     dE/de2(yy)     0.000000 eV/strain
       c            6.015240 Angstrom     dE/de3(zz)    -0.000000 eV/strain
       alpha       90.000000 Degrees      dE/de4(yz)    -0.000000 eV/strain
       beta        90.000000 Degrees      dE/de5(xz)     0.000000 eV/strain
       gamma       90.000000 Degrees      dE/de6(xy)    -0.000000 eV/strain
--------------------------------------------------------------------------------

  Primitive cell volume =           217.650131 Angs**3

  Density of cell =      3.631650 g/cm**3

  Non-primitive cell volume =           217.650131 Angs**3


  Final internal derivatives :

--------------------------------------------------------------------------------
   No.  Atomic          a             b             c           Radius
        Label          (eV)          (eV)          (eV)        (eV/Angs)
--------------------------------------------------------------------------------
      1 K     c       0.000000      0.000000      0.000000      0.000000
      2 K     c      -0.000000     -0.000000     -0.000000      0.000000
      3 K     c       0.000000     -0.000000     -0.000000      0.000000
      4 K     c       0.000000     -0.000000      0.000000      0.000000
      5 Br    c      -0.000000      0.000000     -0.000000      0.000000
      6 Br    c      -0.000000     -0.000000      0.000000      0.000000
      7 Br    c       0.000000      0.000000      0.000000      0.000000
      8 Br    c       0.000000     -0.000000     -0.000000      0.000000
--------------------------------------------------------------------------------
  Maximum abs         0.000000      0.000000      0.000000      0.000000
--------------------------------------------------------------------------------


  Born effective charge tensors : 

-------------------------------------------------------------------------------
  Atom             x           y             z
-------------------------------------------------------------------------------
   1 K     x       0.9880      0.0000      0.0000
           y       0.0000      0.9880      0.0000
           z       0.0000      0.0000      0.9880
-------------------------------------------------------------------------------
   2 K     x       0.9880      0.0000      0.0000
           y       0.0000      0.9880      0.0000
           z       0.0000      0.0000      0.9880
-------------------------------------------------------------------------------
   3 K     x       0.9880      0.0000      0.0000
           y       0.0000      0.9880      0.0000
           z       0.0000      0.0000      0.9880
-------------------------------------------------------------------------------
   4 K     x       0.9880      0.0000      0.0000
           y       0.0000      0.9880      0.0000
           z       0.0000      0.0000      0.9880
-------------------------------------------------------------------------------
   5 Br    x      -0.9880      0.0000      0.0000
           y       0.0000     -0.9880      0.0000
           z       0.0000      0.0000     -0.9880
-------------------------------------------------------------------------------
   6 Br    x      -0.9880      0.0000      0.0000
           y       0.0000     -0.9880      0.0000
           z       0.0000      0.0000     -0.9880
-------------------------------------------------------------------------------
   7 Br    x      -0.9880      0.0000      0.0000
           y       0.0000     -0.9880      0.0000
           z       0.0000      0.0000     -0.9880
-------------------------------------------------------------------------------
   8 Br    x      -0.9880      0.0000      0.0000
           y       0.0000     -0.9880      0.0000
           z       0.0000      0.0000     -0.9880
-------------------------------------------------------------------------------




  Elastic Constant Matrix: (Units=GPa)

-------------------------------------------------------------------------------
  Indices      1         2         3         4         5         6    
-------------------------------------------------------------------------------
       1     60.5489    9.5172    9.5172   -0.0000   -0.0000    0.0000
       2      9.5172   60.5489    9.5172   -0.0000    0.0000   -0.0000
       3      9.5172    9.5172   60.5489   -0.0000   -0.0000    0.0000
       4     -0.0000   -0.0000   -0.0000    9.5172   -0.0000    0.0000
       5     -0.0000    0.0000   -0.0000   -0.0000    9.5172   -0.0000
       6      0.0000   -0.0000    0.0000    0.0000   -0.0000    9.5172
-------------------------------------------------------------------------------


  Elastic Compliance Matrix: (Units=1/GPa)

-------------------------------------------------------------------------------
  Indices      1         2         3         4         5         6    
-------------------------------------------------------------------------------
       1    0.017252 -0.002343 -0.002343  0.000000  0.000000 -0.000000
       2   -0.002343  0.017252 -0.002343 -0.000000 -0.000000  0.000000
       3   -0.002343 -0.002343  0.017252  0.000000  0.000000 -0.000000
       4    0.000000 -0.000000  0.000000  0.105073  0.000000 -0.000000
       5    0.000000 -0.000000  0.000000  0.000000  0.105073  0.000000
       6   -0.000000  0.000000 -0.000000 -0.000000  0.000000  0.105073
-------------------------------------------------------------------------------

  Mechanical properties :

-------------------------------------------------------------------------------
  Convention :                    Reuss         Voigt         Hill
-------------------------------------------------------------------------------
  Bulk  Modulus (GPa)     =      26.52778      26.52778      26.52778
  Shear Modulus (GPa)     =      12.70324      15.91667      14.30995
-------------------------------------------------------------------------------
  Velocity S-wave (km/s)  =       1.87027       2.09351       1.98503
  Velocity P-wave (km/s)  =       3.45955       3.62606       3.54378
-------------------------------------------------------------------------------
  Compressibility (1/GPa) =    0.03769633
-------------------------------------------------------------------------------
  Stress axis :                     x             y             z
-------------------------------------------------------------------------------
  Youngs Moduli (GPa)     =      57.96339      57.96339      57.96339
-------------------------------------------------------------------------------
  Poissons Ratio (x)      =                     0.13583       0.13583
  Poissons Ratio (y)      =       0.13583                     0.13583
  Poissons Ratio (z)      =       0.13583       0.13583
-------------------------------------------------------------------------------


  Piezoelectric Strain Matrix: (Units=C/m**2)

-------------------------------------------------------------------------------
  Indices      1         2         3         4         5         6    
-------------------------------------------------------------------------------
       x    -0.00000  -0.00000  -0.00000   0.00000  -0.00000   0.00000
       y     0.00000  -0.00000  -0.00000  -0.00000   0.00000  -0.00000
       z     0.00000  -0.00000   0.00000   0.00000  -0.00000   0.00000
-------------------------------------------------------------------------------


  Piezoelectric Stress Matrix: (Units=10**-11 C/N)

-------------------------------------------------------------------------------
  Indices      1         2         3         4         5         6    
-------------------------------------------------------------------------------
       x    -0.00000  -0.00000   0.00000   0.00000  -0.00000   0.00000
       y     0.00000  -0.00000  -0.00000  -0.00000   0.00000  -0.00000
       z     0.00000  -0.00000   0.00000   0.00000  -0.00000   0.00000
-------------------------------------------------------------------------------


  Static dielectric constant tensor : 

-------------------------------------------------------------------------------
              x         y         z
-------------------------------------------------------------------------------
       x     2.76493   0.00000   0.00000
       y     0.00000   2.76493   0.00000
       z     0.00000   0.00000   2.76493
--------------------------------------------------------------------------------

  Static refractive indices : 

-------------------------------------------------------------------------------
    1 =    1.66281      2 =    1.66281      3 =    1.66281
-------------------------------------------------------------------------------


  Time to end of optimisation =       0.0233 seconds


  Peak dynamic memory used =       0.50 MB 


  Timing analysis for GULP :

--------------------------------------------------------------------------------
  Task / Subroutine                                          Time (Seconds)
--------------------------------------------------------------------------------
  Calculation of reciprocal space energy and derivatives          0.0020
  Calculation of real space energy and derivatives                0.0126
--------------------------------------------------------------------------------
  Total CPU time                                                  0.0234
--------------------------------------------------------------------------------


  Job Finished at 10:57.48 27th February   2017                               

