********************************************************************************
*                       GENERAL UTILITY LATTICE PROGRAM                        *
*                                 Julian Gale                                  *
*                      Nanochemistry Research Institute                        *
*                           Department of Chemistry                            *
*                    Curtin University, Western Australia                      *
********************************************************************************
* Version = 4.4.2 * Last modified = 20th June 2016                             *
********************************************************************************
*  optimise     - perform optimisation run                                     *
*  conp         - constant pressure calculation                                *
*  property     - calculate properties for final geometry                      *
********************************************************************************
* RbCl Test File                                                               *
********************************************************************************


  Job Started  at 11:14.25 27th February   2017                               

  Number of CPUs =     1


  Total number of configurations input =   1

********************************************************************************
*  Input for Configuration =   1                                               *
********************************************************************************

  Formula = Rb4Cl4                                                      

  Number of irreducible atoms/shells =       8


  Total number atoms/shells =       8

  Dimensionality = 3               :  Bulk   



  Cartesian lattice vectors (Angstroms) :

        6.699000    0.000000    0.000000
        0.000000    6.699000    0.000000
        0.000000    0.000000    6.699000

  Cell parameters (Angstroms/Degrees):

  a =       6.6990    alpha =  90.0000
  b =       6.6990    beta  =  90.0000
  c =       6.6990    gamma =  90.0000

  Initial cell volume =         300.628350 Angs**3

  Temperature of configuration =  0.000     K 

  Pressure of configuration =         0.000 GPa 

  Fractional coordinates of asymmetric unit :

--------------------------------------------------------------------------------
   No.  Atomic       x           y          z         Charge      Occupancy
        Label      (Frac)      (Frac)     (Frac)        (e)         (Frac)  
--------------------------------------------------------------------------------
      1 Rb    c    0.000000    0.000000    0.000000     0.99100    1.000000    
      2 Rb    c    0.000000 *  0.500000 *  0.500000 *   0.99100    1.000000    
      3 Rb    c    0.500000 *  0.000000 *  0.500000 *   0.99100    1.000000    
      4 Rb    c    0.500000 *  0.500000 *  0.000000 *   0.99100    1.000000    
      5 Cl    c    0.000000 *  0.000000 *  0.500000 *  -0.99100    1.000000    
      6 Cl    c    0.000000 *  0.500000 *  0.000000 *  -0.99100    1.000000    
      7 Cl    c    0.500000 *  0.000000 *  0.000000 *  -0.99100    1.000000    
      8 Cl    c    0.500000 *  0.500000 *  0.500000 *  -0.99100    1.000000    
--------------------------------------------------------------------------------



********************************************************************************
*  General input information                                                   *
********************************************************************************

  Species output for all configurations : 

--------------------------------------------------------------------------------
  Species    Type    Atomic    Atomic    Charge       Radii (Angs)     Library
                     Number     Mass       (e)     Cova   Ionic  VDW   Symbol
--------------------------------------------------------------------------------
    Rb       Core       37      85.47   0.991000   1.470  0.000  2.190          
    Cl       Core       17      35.45  -0.991000   0.990  0.000  1.650          
--------------------------------------------------------------------------------


  Lattice summation method               =    Ewald          (3-D)
                                         =    Parry          (2-D)
                                         =    Saunders et al (1-D)
  Accuracy factor for lattice sums       =   12.000


  Time limit = Infinity

  Maximum range for interatomic potentials =    100000.000000 Angstroms

  General interatomic potentials :

--------------------------------------------------------------------------------
Atom  Types   Potential         A         B         C         D     Cutoffs(Ang)
  1     2                                                            Min    Max 
--------------------------------------------------------------------------------
Rb   c Rb   c Buckingham    0.681E+04 0.270      0.00      0.00     0.000 12.000
Cl   c Rb   c Buckingham    0.356E+04 0.323      201.      0.00     0.000 12.000
Cl   c Cl   c Buckingham    0.123E+04 0.321      0.00      0.00     0.000 12.000
--------------------------------------------------------------------------------

********************************************************************************
*  Output for configuration   1                                                *
********************************************************************************


  Components of energy : 

--------------------------------------------------------------------------------
  Interatomic potentials     =          -1.00862611 eV
  Monopole - monopole (real) =          -9.50277912 eV
  Monopole - monopole (recip)=         -20.01038420 eV
  Monopole - monopole (total)=         -29.51316332 eV
--------------------------------------------------------------------------------
  Total lattice energy       =         -30.52178942 eV
--------------------------------------------------------------------------------
  Total lattice energy       =           -2944.8861 kJ/(mole unit cells)
--------------------------------------------------------------------------------


  Number of variables =       27

  Maximum number of calculations  =          1000
  Maximum Hessian update interval =            10
  Maximum step size               =   1.000000000
  Maximum parameter tolerance     =   0.000010000
  Maximum function  tolerance     =   0.000010000
  Maximum gradient  tolerance     =   0.001000000
  Maximum gradient  component     =   0.010000000

  Symmetry not applied to optimisation

  Cell parameters to be optimised using strains

  Newton-Raphson optimiser to be used

  BFGS hessian update to be used

  Start of bulk optimisation :

  Cycle:      0 Energy:       -30.521789  Gnorm:      0.504599  CPU:    0.012
  ** Hessian calculated **
  Cycle:      1 Energy:       -32.121489  Gnorm:      0.041730  CPU:    0.017
  Cycle:      2 Energy:       -32.123607  Gnorm:      0.034085  CPU:    0.019
  Cycle:      3 Energy:       -32.127179  Gnorm:      0.000066  CPU:    0.021


  **** Optimisation achieved ****


  Final energy =     -32.12717890 eV
  Final Gnorm  =       0.00000000

  Components of energy : 

--------------------------------------------------------------------------------
  Interatomic potentials     =           0.92893750 eV
  Monopole - monopole (real) =         -10.64355485 eV
  Monopole - monopole (recip)=         -22.41256154 eV
  Monopole - monopole (total)=         -33.05611640 eV
--------------------------------------------------------------------------------
  Total lattice energy       =         -32.12717890 eV
--------------------------------------------------------------------------------
  Total lattice energy       =           -3099.7817 kJ/(mole unit cells)
--------------------------------------------------------------------------------

  Final fractional coordinates of atoms :

--------------------------------------------------------------------------------
   No.  Atomic        x           y          z          Radius
        Label       (Frac)      (Frac)     (Frac)       (Angs) 
--------------------------------------------------------------------------------
     1  Rb    c     0.000000    0.000000    0.000000    0.000000
     2  Rb    c     0.000000    0.500000    0.500000    0.000000
     3  Rb    c     0.500000    0.000000    0.500000    0.000000
     4  Rb    c     0.500000    0.500000    0.000000    0.000000
     5  Cl    c     0.000000    0.000000    0.500000    0.000000
     6  Cl    c     0.000000    0.500000    0.000000    0.000000
     7  Cl    c     0.500000    0.000000    0.000000    0.000000
     8  Cl    c     0.500000    0.500000    0.500000    0.000000
--------------------------------------------------------------------------------

  Final Cartesian lattice vectors (Angstroms) :

        5.981001    0.000000    0.000000
        0.000000    5.981001    0.000000
        0.000000    0.000000    5.981001


  Final cell parameters and derivatives :

--------------------------------------------------------------------------------
       a            5.981001 Angstrom     dE/de1(xx)     0.000000 eV/strain
       b            5.981001 Angstrom     dE/de2(yy)     0.000000 eV/strain
       c            5.981001 Angstrom     dE/de3(zz)     0.000000 eV/strain
       alpha       90.000000 Degrees      dE/de4(yz)     0.000000 eV/strain
       beta        90.000000 Degrees      dE/de5(xz)     0.000000 eV/strain
       gamma       90.000000 Degrees      dE/de6(xy)     0.000000 eV/strain
--------------------------------------------------------------------------------

  Primitive cell volume =           213.954650 Angs**3

  Density of cell =      3.753984 g/cm**3

  Non-primitive cell volume =           213.954650 Angs**3


  Final internal derivatives :

--------------------------------------------------------------------------------
   No.  Atomic          a             b             c           Radius
        Label          (eV)          (eV)          (eV)        (eV/Angs)
--------------------------------------------------------------------------------
      1 Rb    c       0.000000      0.000000      0.000000      0.000000
      2 Rb    c       0.000000      0.000000      0.000000      0.000000
      3 Rb    c      -0.000000      0.000000     -0.000000      0.000000
      4 Rb    c      -0.000000     -0.000000     -0.000000      0.000000
      5 Cl    c       0.000000      0.000000      0.000000      0.000000
      6 Cl    c       0.000000     -0.000000     -0.000000      0.000000
      7 Cl    c      -0.000000     -0.000000      0.000000      0.000000
      8 Cl    c      -0.000000     -0.000000     -0.000000      0.000000
--------------------------------------------------------------------------------
  Maximum abs         0.000000      0.000000      0.000000      0.000000
--------------------------------------------------------------------------------


  Born effective charge tensors : 

-------------------------------------------------------------------------------
  Atom             x           y             z
-------------------------------------------------------------------------------
   1 Rb    x       0.9910      0.0000      0.0000
           y       0.0000      0.9910      0.0000
           z       0.0000      0.0000      0.9910
-------------------------------------------------------------------------------
   2 Rb    x       0.9910      0.0000      0.0000
           y       0.0000      0.9910      0.0000
           z       0.0000      0.0000      0.9910
-------------------------------------------------------------------------------
   3 Rb    x       0.9910      0.0000      0.0000
           y       0.0000      0.9910      0.0000
           z       0.0000      0.0000      0.9910
-------------------------------------------------------------------------------
   4 Rb    x       0.9910      0.0000      0.0000
           y       0.0000      0.9910      0.0000
           z       0.0000      0.0000      0.9910
-------------------------------------------------------------------------------
   5 Cl    x      -0.9910      0.0000      0.0000
           y       0.0000     -0.9910      0.0000
           z       0.0000      0.0000     -0.9910
-------------------------------------------------------------------------------
   6 Cl    x      -0.9910      0.0000      0.0000
           y       0.0000     -0.9910      0.0000
           z       0.0000      0.0000     -0.9910
-------------------------------------------------------------------------------
   7 Cl    x      -0.9910      0.0000      0.0000
           y       0.0000     -0.9910      0.0000
           z       0.0000      0.0000     -0.9910
-------------------------------------------------------------------------------
   8 Cl    x      -0.9910      0.0000      0.0000
           y       0.0000     -0.9910      0.0000
           z       0.0000      0.0000     -0.9910
-------------------------------------------------------------------------------




  Elastic Constant Matrix: (Units=GPa)

-------------------------------------------------------------------------------
  Indices      1         2         3         4         5         6    
-------------------------------------------------------------------------------
       1     67.8735    9.2846    9.2846    0.0000   -0.0000    0.0000
       2      9.2846   67.8735    9.2846    0.0000    0.0000    0.0000
       3      9.2846    9.2846   67.8735   -0.0000    0.0000    0.0000
       4      0.0000    0.0000   -0.0000    9.2846   -0.0000    0.0000
       5     -0.0000    0.0000    0.0000   -0.0000    9.2846    0.0000
       6      0.0000    0.0000    0.0000    0.0000    0.0000    9.2846
-------------------------------------------------------------------------------


  Elastic Compliance Matrix: (Units=1/GPa)

-------------------------------------------------------------------------------
  Indices      1         2         3         4         5         6    
-------------------------------------------------------------------------------
       1    0.015235 -0.001833 -0.001833 -0.000000  0.000000 -0.000000
       2   -0.001833  0.015235 -0.001833 -0.000000 -0.000000 -0.000000
       3   -0.001833 -0.001833  0.015235  0.000000 -0.000000 -0.000000
       4   -0.000000 -0.000000  0.000000  0.107706  0.000000 -0.000000
       5    0.000000 -0.000000 -0.000000  0.000000  0.107706 -0.000000
       6   -0.000000 -0.000000 -0.000000 -0.000000 -0.000000  0.107706
-------------------------------------------------------------------------------

  Mechanical properties :

-------------------------------------------------------------------------------
  Convention :                    Reuss         Voigt         Hill
-------------------------------------------------------------------------------
  Bulk  Modulus (GPa)     =      28.81421      28.81421      28.81421
  Shear Modulus (GPa)     =      12.77499      17.28852      15.03176
-------------------------------------------------------------------------------
  Velocity S-wave (km/s)  =       1.84474       2.14602       2.00105
  Velocity P-wave (km/s)  =       3.49472       3.71701       3.60757
-------------------------------------------------------------------------------
  Compressibility (1/GPa) =    0.03470510
-------------------------------------------------------------------------------
  Stress axis :                     x             y             z
-------------------------------------------------------------------------------
  Youngs Moduli (GPa)     =      65.63907      65.63907      65.63907
-------------------------------------------------------------------------------
  Poissons Ratio (x)      =                     0.12033       0.12033
  Poissons Ratio (y)      =       0.12033                     0.12033
  Poissons Ratio (z)      =       0.12033       0.12033
-------------------------------------------------------------------------------


  Piezoelectric Strain Matrix: (Units=C/m**2)

-------------------------------------------------------------------------------
  Indices      1         2         3         4         5         6    
-------------------------------------------------------------------------------
       x     0.00000   0.00000   0.00000  -0.00000   0.00000  -0.00000
       y     0.00000  -0.00000   0.00000   0.00000  -0.00000   0.00000
       z    -0.00000   0.00000   0.00000  -0.00000   0.00000  -0.00000
-------------------------------------------------------------------------------


  Piezoelectric Stress Matrix: (Units=10**-11 C/N)

-------------------------------------------------------------------------------
  Indices      1         2         3         4         5         6    
-------------------------------------------------------------------------------
       x     0.00000   0.00000   0.00000  -0.00000   0.00000  -0.00000
       y     0.00000  -0.00000   0.00000   0.00000  -0.00000   0.00000
       z    -0.00000   0.00000  -0.00000  -0.00000   0.00000  -0.00000
-------------------------------------------------------------------------------


  Static dielectric constant tensor : 

-------------------------------------------------------------------------------
              x         y         z
-------------------------------------------------------------------------------
       x     2.58161   0.00000   0.00000
       y     0.00000   2.58161  -0.00000
       z     0.00000  -0.00000   2.58161
--------------------------------------------------------------------------------

  Static refractive indices : 

-------------------------------------------------------------------------------
    1 =    1.60674      2 =    1.60674      3 =    1.60674
-------------------------------------------------------------------------------


  Time to end of optimisation =       0.0279 seconds


  Peak dynamic memory used =       0.50 MB 


  Timing analysis for GULP :

--------------------------------------------------------------------------------
  Task / Subroutine                                          Time (Seconds)
--------------------------------------------------------------------------------
  Calculation of reciprocal space energy and derivatives          0.0024
  Calculation of real space energy and derivatives                0.0136
  Calculation of matrix inversion                                 0.0004
--------------------------------------------------------------------------------
  Total CPU time                                                  0.0283
--------------------------------------------------------------------------------


  Job Finished at 11:14.26 27th February   2017                               

